#!/bin/bash
# PreToolUse Bash gate: block cat/head/tail/find/grep/rg/wc invocations.
# Forces use of Read/Grep/Glob tools (which are subject to compression hooks).
# Escape hatch: touch /tmp/bash-raw-unlock (expires after 10 min).
set -euo pipefail
# shellcheck source=/dev/null
source "$(dirname "$0")/lib-log.sh"

INPUT=$(cat)
TOOL=$(echo "$INPUT" | jq -r '.tool_name // empty')
[ "$TOOL" = "Bash" ] || exit 0
log_setup "bash-ban-raw-tools"

UNLOCK=/tmp/bash-raw-unlock
# Unlock expires after 10 min (prevents silent permanent bypass).
check_unlock() {
  local f=$1
  [ -f "$f" ] || return 1
  local mtime
  mtime=$(stat -f %m "$f" 2>/dev/null || stat -c %Y "$f" 2>/dev/null || echo 0)
  local age=$(( $(date +%s) - mtime ))
  if [ "$age" -lt 600 ]; then return 0; fi
  rm -f "$f"; return 1
}
if check_unlock "$UNLOCK" || check_unlock "/tmp/bash-raw-unlock-$PPID"; then
  log_op "ALLOWED via unlock file"
  exit 0
fi

CMD=$(echo "$INPUT" | jq -r '.tool_input.command // ""')
TRIMMED=$(echo "$CMD" | sed -E 's/^[[:space:]]*//')
FIRST=$(echo "$TRIMMED" | awk '{print $1}')

banned=0
case "$FIRST" in
  cat|head|tail|find|grep|rg|wc) banned=1 ;;
  rtk) log_op "ALLOWED rtk passthrough"; exit 0 ;;
esac

# Catch truncation pipes (cat file.py | head -20)
if echo "$CMD" | grep -qE '\|\s*(tail|head)\b' && echo "$FIRST" | grep -qE '^(cat|grep|rg|find)$'; then
  log_op "BLOCKED pipeline: $FIRST | head/tail"
  cat >&2 <<EOF
BLOCKED: '| tail'/'| head' pipeline. Output truncation not allowed — raw output still floods context before trim.

REPLACE WITH ctx_batch_execute:
  commands: [{"label": "your label", "command": "your command"}]
  queries:  ["what you're looking for"]
EOF
  exit 2
fi

if [ "$banned" -eq 0 ]; then
  log_op "ALLOWED $FIRST (not banned)"
  exit 0
fi

log_op "BLOCKED $FIRST"
case "$FIRST" in
  cat|head|tail) echo "BLOCKED '$FIRST'. Use the Read tool." >&2 ;;
  find) echo "BLOCKED 'find'. Use the Glob tool." >&2 ;;
  grep|rg) echo "BLOCKED '$FIRST'. Use the Grep tool." >&2 ;;
  wc) echo "BLOCKED 'wc'. Use Read (line count visible) or rtk wc." >&2 ;;
esac
exit 2
